LAMMPS data file created by MetaMol(version: 1.3.0); units: real 

5358 atoms 
740 bonds 
1360 angles 
1960 dihedrals 

7 atom types
6 bond types
16 angle types
23 dihedral types

-1.000000 42.912250 xlo xhi 
-1.000000 42.912250 ylo yhi 
-7.242250 47.242250 zlo zhi 

Masses
Type	mass (amu)
1	12.010780		#c3
2	18.998403		#f
3	15.999430		#os
4	15.999430		#oh
5	1.007947		#ho
6	1.007947		#h1
7	12.010000		#coc_custom

Pair Coeffs # lj/long/coul/long
Type	epsilon (kcal/mol)		sigma (A)
1	0.109400		3.399670		#c3
2	0.061000		3.118146		#f
3	0.170000		3.000012		#os
4	0.210400		3.066473		#oh
5	0.000000		0.000000		#ho
6	0.015700		2.471353		#h1
7	0.086000		3.399670		#coc_custom

Bond Coeffs # harmonic
Type	K (kcal/mol/A^2)		req (A)
1	356.900000		1.349700		#c3	f
2	300.900000		1.537500		#c3	c3
3	308.600000		1.431600		#c3	os
4	316.700000		1.423300		#c3	oh
5	371.400000		0.973000		#ho	oh
6	330.600000		1.096900		#c3	h1

Angle Coeffs # harmonic 
Type	K(kcal/mole/deg^2)		theteq(deg)
1	66.100000		109.240		#c3	c3	f
2	62.900000		111.510		#c3	c3	c3
3	62.700000		112.480		#c3	os	c3
4	70.900000		107.360		#f	c3	f
5	66.100000		109.240		#f	c3	c3
6	70.800000		110.580		#f	c3	os
7	68.000000		107.970		#c3	c3	os
8	70.800000		110.580		#os	c3	f
9	68.000000		107.970		#os	c3	c3
10	67.500000		110.190		#oh	c3	c3
11	50.900000		110.260		#oh	c3	h1
12	47.400000		107.260		#c3	oh	ho
13	67.500000		110.190		#c3	c3	oh
14	46.400000		109.560		#c3	c3	h1
15	50.800000		109.780		#os	c3	h1
16	39.200000		108.460		#h1	c3	h1

Dihedral Coeffs # charmm
Type	K(kcal/mol)		n		d(deg)		weight
1	0.155556		3		0		0.000		#c3	c3	c3	f
2	0.155556		3		0		0.000		#c3	c3	c3	os
3	0.383000		3		0		0.000		#c3	os	c3	c3
4	0.383333		3		0		0.000		#c3	os	c3	f
5	1.200000		1		180		0.000		#f	c3	c3	f
6	0.155556		3		0		0.000		#f	c3	c3	c3
7	0.383333		3		0		0.000		#f	c3	os	c3
8	0.383000		3		0		0.000		#c3	c3	os	c3
9	0.155556		3		0		0.000		#f	c3	c3	os
10	0.155556		3		0		0.000		#os	c3	c3	f
11	0.155556		3		0		0.000		#os	c3	c3	c3
12	0.144000		3		0		0.000		#oh	c3	c3	oh
13	0.155556		3		0		0.000		#oh	c3	c3	c3
14	0.250000		1		0		0.000		#oh	c3	c3	h1
15	0.160000		3		0		0.000		#c3	c3	oh	ho
16	0.155556		3		0		0.000		#c3	c3	c3	h1
17	0.144000		3		0		0.000		#oh	c3	c3	os
18	0.383333		3		0		0.000		#c3	os	c3	h1
19	0.250000		1		0		0.000		#os	c3	c3	h1
20	0.190000		1		0		0.000		#f	c3	c3	h1
21	0.166667		3		0		0.000		#ho	oh	c3	h1
22	0.155556		3		0		0.000		#h1	c3	c3	h1
23	0.166667		3		0		0.000		#h1	c3	oh	ho

Atoms # full

1	1	1	0.594913	31.125802	20.843743	10.655226
2	1	2	-0.188537	30.018111	20.417038	9.941732
3	1	2	-0.188537	30.695045	21.041038	11.958797
4	1	1	0.404113	31.581067	22.225826	10.102611
5	1	2	-0.174037	31.618425	22.216130	8.722070
6	1	2	-0.174037	30.616822	23.153953	10.460689
7	1	1	0.590413	32.933574	22.721615	10.647426
8	1	2	-0.194287	32.869024	22.768737	12.036999
9	1	2	-0.194287	33.130773	24.014927	10.164553
10	1	3	-0.486587	33.977490	21.863788	10.205754
11	1	4	-0.604787	28.469564	15.905960	4.722929
12	1	1	0.114413	29.599363	15.076874	4.669076
13	1	1	0.110613	30.147640	14.842116	6.079597
14	1	4	-0.611287	29.147871	14.261675	6.877266
15	1	1	0.089413	30.631059	16.152398	6.710362
16	1	3	-0.416587	31.178320	15.883189	7.983395
17	1	1	0.093913	32.110093	16.876636	8.375955
18	1	1	0.403113	31.471284	17.913203	9.316315
19	1	2	-0.199037	31.200977	17.313800	10.541830
20	1	2	-0.199037	30.271299	18.321056	8.748190
21	1	1	0.569413	32.422257	19.129233	9.520299
22	1	2	-0.204287	33.721658	18.655875	9.641534
23	1	2	-0.204287	32.397301	19.932417	8.394111
24	1	3	-0.495087	32.155913	19.857905	10.716983
25	1	5	0.416013	28.159225	16.004103	3.782542
26	1	6	0.046463	30.381730	15.549034	4.035519
27	1	6	0.046463	29.319823	14.098637	4.216109
28	1	6	0.069213	31.013436	14.142388	5.989719
29	1	5	0.426513	29.599004	13.770853	7.609383
30	1	6	0.073213	31.357623	16.599870	6.004651
31	1	6	0.073213	29.776390	16.848784	6.812240
32	1	6	0.088963	32.603366	17.389054	7.525817
33	1	6	0.088963	32.927436	16.367927	8.924125
34	1	1	0.594913	35.241974	22.240444	10.732855
35	1	2	-0.196287	35.268179	22.054156	12.107498
36	1	2	-0.196287	35.535782	23.571680	10.461530
37	1	1	0.419613	36.352137	21.358594	10.125983
38	1	2	-0.175787	36.199444	20.058851	10.585715
39	1	2	-0.175787	37.571098	21.831119	10.575826
40	1	1	0.594913	36.369151	21.336017	8.584245
41	1	2	-0.196287	37.540657	20.705817	8.184981
42	1	2	-0.196287	35.282213	20.604499	8.135087
43	1	3	-0.486587	36.296102	22.655598	8.074412
44	1	1	0.590413	36.649204	22.750333	6.703589
45	1	2	-0.194287	36.389669	21.588060	5.985618
46	1	2	-0.194287	38.005906	23.015150	6.617585
47	1	1	0.404113	35.872183	23.915937	6.065445
48	1	2	-0.174037	36.425881	24.200907	4.830163
49	1	2	-0.174037	36.003913	25.037590	6.863232
50	1	1	0.594913	34.375834	23.602213	5.878247
51	1	2	-0.188537	33.733909	24.757666	5.467143
52	1	2	-0.188537	33.832634	23.208968	7.093561
53	1	3	-0.495087	34.239494	22.608861	4.873243
54	1	4	-0.604787	36.716353	17.941196	6.580464
55	1	1	0.114413	35.380344	17.544127	6.507300
56	1	1	0.110613	35.044722	17.097857	5.082435
57	1	4	-0.611287	33.777250	16.492785	5.075117
58	1	1	0.089413	35.079805	18.278891	4.096055
59	1	3	-0.416587	34.005649	19.159640	4.356873
60	1	1	0.093913	33.952967	20.148765	3.349396
61	1	1	0.403113	32.800339	21.131316	3.618442
62	1	2	-0.199037	32.707688	22.011918	2.550344
63	1	2	-0.199037	31.610966	20.424040	3.694683
64	1	1	0.569413	32.991514	21.939389	4.915686
65	1	2	-0.204287	31.941043	22.842153	5.016545
66	1	2	-0.204287	32.953324	21.077032	5.999179
67	1	5	0.416013	36.889910	18.131027	7.539171
68	1	6	0.046463	34.725803	18.386423	6.801562
69	1	6	0.046463	35.209273	16.694492	7.208038
70	1	6	0.069213	35.805745	16.345519	4.767074
71	1	5	0.426513	33.710687	15.981986	4.224625
72	1	6	0.073213	36.061991	18.804397	4.179247
73	1	6	0.073213	35.009002	17.855955	3.068498
74	1	6	0.088963	33.759712	19.675491	2.357710
75	1	6	0.088963	34.910856	20.709605	3.303480
76	2	1	0.594913	10.860519	23.024139	10.829461
77	2	2	-0.188537	10.641184	21.952417	9.980088
78	2	2	-0.188537	11.073339	22.483592	12.088942
79	2	1	0.404113	9.563998	23.882070	10.905583
80	2	2	-0.174037	9.044994	24.103039	9.644952
81	2	2	-0.174037	8.616439	23.141872	11.593803
82	2	1	0.590413	9.726687	25.228683	11.635015
83	2	2	-0.194287	10.208699	24.989805	12.918722
84	2	2	-0.194287	8.461725	25.807531	11.732566
85	2	3	-0.486587	10.602742	26.074225	10.901334
86	2	4	-0.604787	12.117885	20.046426	3.334016
87	2	1	0.114413	13.144354	20.928792	2.967247
88	2	1	0.110613	14.055690	21.203788	4.166886
89	2	4	-0.611287	14.590737	19.991626	4.632838
90	2	1	0.089413	13.291336	21.909902	5.291858
91	2	3	-0.416587	14.178968	22.193970	6.352045
92	2	1	0.093913	13.726772	23.282765	7.138994
93	2	1	0.403113	13.003735	22.802555	8.409206
94	2	2	-0.199037	13.929585	22.226678	9.272574
95	2	2	-0.199037	12.083827	21.831833	8.034316
96	2	1	0.569413	12.288532	23.991176	9.116564
97	2	2	-0.204287	13.119892	25.101489	9.059530
98	2	2	-0.204287	11.138947	24.321637	8.421382
99	2	3	-0.495087	12.041005	23.755951	10.501249
100	2	5	0.416013	11.577121	19.901358	2.511336
101	2	6	0.046463	12.706301	21.883134	2.601502
102	2	6	0.046463	13.745146	20.477174	2.145445
103	2	6	0.069213	14.879743	21.870436	3.815008
104	2	5	0.426513	15.434303	20.201501	5.106939
105	2	6	0.073213	12.830916	22.814373	4.849027
106	2	6	0.073213	12.478053	21.251451	5.653526
107	2	6	0.088963	13.086831	23.999536	6.586419
108	2	6	0.088963	14.618437	23.864158	7.445979
109	2	1	0.594913	10.837845	27.309011	11.563644
110	2	2	-0.196287	11.544289	27.100636	12.739462
111	2	2	-0.196287	9.649596	27.961218	11.871570
112	2	1	0.419613	11.689386	28.234476	10.671003
113	2	2	-0.175787	12.963616	27.699820	10.550671
114	2	2	-0.175787	11.797459	29.460162	11.301495
115	2	1	0.594913	11.113045	28.454621	9.257807
116	2	2	-0.196287	11.842532	29.473758	8.659308
117	2	2	-0.196287	11.269634	27.290458	8.523981
118	2	3	-0.486587	9.737720	28.784689	9.335874
119	2	1	0.590413	9.220814	29.333154	8.133873
120	2	2	-0.194287	9.885196	28.890583	6.995257
121	2	2	-0.194287	9.341118	30.711603	8.193612
122	2	1	0.404113	7.730167	28.967312	8.016598
123	2	2	-0.174037	7.156505	29.737316	7.020748
124	2	2	-0.174037	7.096134	29.266354	9.208444
125	2	1	0.594913	7.506501	27.479875	7.684884
126	2	2	-0.188537	6.151658	27.210125	7.773095
127	2	2	-0.188537	8.170202	26.695503	8.618134
128	2	3	-0.495087	7.946072	27.236736	6.357092
129	2	4	-0.604787	13.404256	28.208640	6.040611
130	2	1	0.114413	13.343635	26.838498	5.781819
131	2	1	0.110613	13.083692	26.598549	4.292895
132	2	4	-0.611287	13.250415	25.233008	4.009789
133	2	1	0.089413	11.674715	27.062283	3.882101
134	2	3	-0.416587	10.699488	26.218078	4.459862
135	2	1	0.093913	9.425425	26.552447	3.948868
136	2	1	0.403113	8.341924	25.657430	4.574418
137	2	2	-0.199037	7.127922	25.934522	3.962620
138	2	2	-0.199037	8.652946	24.329768	4.326950
139	2	1	0.569413	8.194143	25.866970	6.093176
140	2	2	-0.204287	7.144018	25.072721	6.534822
141	2	2	-0.204287	9.360960	25.466952	6.723730
142	2	5	0.416013	13.661028	28.292307	6.995779
143	2	6	0.046463	12.534445	26.382301	6.383129
144	2	6	0.046463	14.312329	26.366315	6.066165
145	2	6	0.069213	13.836141	27.182226	3.711723
146	2	5	0.426513	13.347386	25.156724	3.023148
147	2	6	0.073213	11.526136	28.124128	4.195437
148	2	6	0.073213	11.624501	27.028022	2.770316
149	2	6	0.088963	9.398466	26.383323	2.846395
150	2	6	0.088963	9.188664	27.617404	4.158657
151	3	1	0.594913	13.572876	31.911638	11.446649
152	3	2	-0.188537	12.629358	32.920900	11.543041
153	3	2	-0.188537	13.430311	31.137112	12.588384
154	3	1	0.404113	14.994752	32.543525	11.488971
155	3	2	-0.174037	15.073243	33.636281	10.648074
156	3	2	-0.174037	15.197584	33.023273	12.772758
157	3	1	0.590413	16.141479	31.567104	11.167217
158	3	2	-0.194287	16.078027	30.492130	12.049093
159	3	2	-0.194287	17.341129	32.246816	11.375884
160	3	3	-0.486587	16.045526	31.135630	9.816170
161	3	4	-0.604787	8.285581	36.560051	7.315522
162	3	1	0.114413	8.243460	35.780562	6.150467
163	3	1	0.110613	8.293041	34.292871	6.510480
164	3	4	-0.611287	7.212295	33.980962	7.351566
165	3	1	0.089413	9.615639	33.933392	7.195975
166	3	3	-0.416587	9.642777	32.546838	7.459246
167	3	1	0.093913	10.968964	32.056763	7.560723
168	3	1	0.403113	11.417410	31.934013	9.027233
169	3	2	-0.199037	10.712903	30.900963	9.636097
170	3	2	-0.199037	11.102338	33.124296	9.669907
171	3	1	0.569413	12.946728	31.653550	9.112183
172	3	2	-0.204287	13.285168	30.753908	8.110529
173	3	2	-0.204287	13.647585	32.817594	8.851744
174	3	3	-0.495087	13.339836	31.042116	10.339199
175	3	5	0.416013	8.235628	37.506296	7.011556
176	3	6	0.046463	9.104414	36.037596	5.495395
177	3	6	0.046463	7.301150	35.993176	5.596286
178	3	6	0.069213	8.210033	33.715367	5.558168
179	3	5	0.426513	7.028182	33.013087	7.252864
180	3	6	0.073213	10.428146	34.269544	6.522931
181	3	6	0.073213	9.701612	34.494556	8.146499
182	3	6	0.088963	11.710008	32.647428	6.985751
183	3	6	0.088963	10.985722	31.046267	7.106914
184	3	1	0.594913	17.045225	30.182245	9.484083
185	3	2	-0.196287	16.841481	29.002932	10.186039
186	3	2	-0.196287	18.320678	30.653587	9.772501
187	3	1	0.419613	16.974733	29.843308	7.981229
188	3	2	-0.175787	15.796026	29.157768	7.726899
189	3	2	-0.175787	18.031345	29.004289	7.679363
190	3	1	0.594913	17.038754	31.072648	7.052585
191	3	2	-0.196287	17.200385	30.610838	5.752739
192	3	2	-0.196287	15.843350	31.766078	7.144573
193	3	3	-0.486587	18.108639	31.919117	7.433891
194	3	1	0.590413	18.451079	32.875359	6.443363
195	3	2	-0.194287	17.381020	33.236310	5.631940
196	3	2	-0.194287	19.439782	32.336497	5.636976
197	3	1	0.404113	19.002484	34.136067	7.133428
198	3	2	-0.174037	19.608543	34.938480	6.183407
199	3	2	-0.174037	19.963097	33.763255	8.055465
200	3	1	0.594913	17.907534	34.951596	7.846539
201	3	2	-0.188537	18.516150	35.957414	8.577334
202	3	2	-0.188537	17.219160	34.127342	8.725994
203	3	3	-0.495087	17.059817	35.532727	6.867237
204	3	4	-0.604787	14.533288	31.490999	4.018095
205	3	1	0.114413	13.454869	32.108007	4.653902
206	3	1	0.110613	12.965108	33.294123	3.820053
207	3	4	-0.611287	11.750949	33.760503	4.350107
208	3	1	0.089413	14.004522	34.428738	3.784193
209	3	3	-0.416587	14.110837	35.028478	5.059562
210	3	1	0.093913	14.943578	36.166791	4.976266
211	3	1	0.403113	15.089029	36.830377	6.356425
212	3	2	-0.199037	15.812665	38.005194	6.211380
213	3	2	-0.199037	13.830844	37.158872	6.835719
214	3	1	0.569413	15.801264	35.929632	7.382948
215	3	2	-0.204287	15.946669	36.653144	8.559398
216	3	2	-0.204287	15.018008	34.814250	7.630961
217	3	5	0.416013	14.742318	30.686149	4.560129
218	3	6	0.046463	13.764990	32.456321	5.657386
219	3	6	0.046463	12.625146	31.372889	4.769397
220	3	6	0.069213	12.790248	32.935952	2.778057
221	3	5	0.426513	11.332842	34.326958	3.647968
222	3	6	0.073213	14.988370	34.021812	3.446227
223	3	6	0.073213	13.664782	35.166789	3.022867
224	3	6	0.088963	14.491492	36.922815	4.291558
225	3	6	0.088963	15.948919	35.887080	4.595146
226	4	1	0.594913	22.126168	7.480284	8.966101
227	4	2	-0.188537	21.786585	8.801925	8.729296
228	4	2	-0.188537	20.968909	6.855468	9.406703
229	4	1	0.404113	23.156401	7.424361	10.131562
230	4	2	-0.174037	24.151583	8.365486	9.954700
231	4	2	-0.174037	22.488308	7.776023	11.293195
232	4	1	0.590413	23.794822	6.041361	10.358799
233	4	2	-0.194287	22.784298	5.109920	10.579163
234	4	2	-0.194287	24.582286	6.127182	11.506511
235	4	3	-0.486587	24.592065	5.685666	9.236931
236	4	4	-0.604787	23.329951	13.946449	4.131946
237	4	1	0.114413	23.918200	13.255822	3.062495
238	4	1	0.110613	23.232406	11.900032	2.870631
239	4	4	-0.611287	21.862497	12.100369	2.634112
240	4	1	0.089413	23.430113	11.001729	4.096338
241	4	3	-0.416587	22.832095	9.745938	3.855620
242	4	1	0.093913	23.418991	8.724342	4.643744
243	4	1	0.403113	22.583977	8.428222	5.901476
244	4	2	-0.199037	21.394043	7.813742	5.526362
245	4	2	-0.199037	22.284299	9.640805	6.508856
246	4	1	0.569413	23.370886	7.505699	6.878416
247	4	2	-0.204287	24.035663	6.541322	6.133260
248	4	2	-0.204287	24.343872	8.242092	7.530376
249	4	3	-0.495087	22.528259	6.792978	7.781722
250	4	5	0.416013	23.809688	14.816320	4.190664
251	4	6	0.046463	25.001182	13.104030	3.263832
252	4	6	0.046463	23.812166	13.856254	2.130558
253	4	6	0.069213	23.701722	11.410430	1.983314
254	4	5	0.426513	21.527406	11.310771	2.139470
255	4	6	0.073213	24.520720	10.942152	4.278497
256	4	6	0.073213	22.958940	11.475334	4.979222
257	4	6	0.088963	24.471771	8.925549	4.926221
258	4	6	0.088963	23.453139	7.805635	4.025572
259	4	1	0.594913	25.155220	4.387812	9.367524
260	4	2	-0.196287	24.158681	3.422842	9.339655
261	4	2	-0.196287	25.867271	4.253738	10.553752
262	4	1	0.419613	26.107127	4.102953	8.188057
263	4	2	-0.175787	25.364052	4.002363	7.021131
264	4	2	-0.175787	26.717797	2.883109	8.412931
265	4	1	0.594913	27.199180	5.172496	7.984940
266	4	2	-0.196287	28.107151	4.676883	7.058146
267	4	2	-0.196287	26.612743	6.320863	7.479331
268	4	3	-0.486587	27.831986	5.466393	9.217717
269	4	1	0.590413	29.056209	6.167900	9.069467
270	4	2	-0.194287	29.105266	6.955754	7.924653
271	4	2	-0.194287	30.085458	5.243780	9.000087
272	4	1	0.404113	29.272750	7.063854	10.302349
273	4	2	-0.174037	30.581597	7.511752	10.306810
274	4	2	-0.174037	29.072381	6.314201	11.446811
275	4	1	0.594913	28.330993	8.282495	10.325514
276	4	2	-0.188537	28.475110	8.924621	11.543319
277	4	2	-0.188537	27.016767	7.850567	10.211745
278	4	3	-0.495087	28.705620	9.169353	9.282198
279	4	4	-0.604787	28.013177	6.625224	4.395025
280	4	1	0.114413	27.077558	7.657657	4.313556
281	4	1	0.110613	27.748826	8.932104	3.796619
282	4	4	-0.611287	26.761682	9.887973	3.505911
283	4	1	0.089413	28.755595	9.495157	4.815640
284	4	3	-0.416587	28.071222	9.996929	5.945868
285	4	1	0.093913	28.987507	10.653650	6.797509
286	4	1	0.403113	28.269913	11.196399	8.045237
287	4	2	-0.199037	29.175773	11.933339	8.794381
288	4	2	-0.199037	27.250974	12.047316	7.647285
289	4	1	0.569413	27.680677	10.082171	8.930488
290	4	2	-0.204287	27.130160	10.677260	10.058072
291	4	2	-0.204287	26.681246	9.425570	8.231139
292	4	5	0.416013	27.499725	5.814371	4.648325
293	4	6	0.046463	26.639822	7.842039	5.312990
294	4	6	0.046463	26.262364	7.362133	3.613340
295	4	6	0.069213	28.294346	8.679216	2.856899
296	4	5	0.426513	27.191793	10.575179	2.930207
297	4	6	0.073213	29.479763	8.695222	5.104523
298	4	6	0.073213	29.329089	10.301712	4.305411
299	4	6	0.088963	29.441844	11.526231	6.271243
300	4	6	0.088963	29.795078	9.958265	7.111310
301	5	1	0.594913	10.407634	9.897910	4.687936
302	5	2	-0.188537	9.672751	10.665079	3.799383
303	5	2	-0.188537	11.726769	10.304493	4.552479
304	5	1	0.404113	10.334151	8.406488	4.248543
305	5	2	-0.174037	9.036084	8.046119	3.944340
306	5	2	-0.174037	11.058957	8.283678	3.074243
307	5	1	0.590413	10.917311	7.407705	5.265529
308	5	2	-0.194287	12.238700	7.755363	5.530795
309	5	2	-0.194287	10.897126	6.145948	4.672006
310	5	3	-0.486587	10.132758	7.409751	6.450930
311	5	4	-0.604787	3.344858	13.798805	3.451142
312	5	1	0.114413	2.926966	13.828568	4.789502
313	5	1	0.110613	4.126499	14.071049	5.710162
314	5	4	-0.611287	4.745079	15.282404	5.359873
315	5	1	0.089413	5.133727	12.919535	5.621282
316	5	3	-0.416587	6.192780	13.155445	6.524241
317	5	1	0.093913	6.835442	11.951412	6.907039
318	5	1	0.403113	8.119084	11.710563	6.093971
319	5	2	-0.199037	9.078855	12.645532	6.466680
320	5	2	-0.199037	7.814694	11.898779	4.751959
321	5	1	0.569413	8.660628	10.270885	6.336346
322	5	2	-0.204287	8.517013	9.967996	7.683507
323	5	2	-0.204287	7.885410	9.359898	5.641244
324	5	3	-0.495087	10.051087	10.136458	6.049108
325	5	5	0.416013	2.521022	13.653519	2.912200
326	5	6	0.046463	2.440338	12.863956	5.052455
327	5	6	0.046463	2.185908	14.648254	4.928129
328	5	6	0.069213	3.738565	14.132997	6.755614
329	5	5	0.426513	5.228423	15.611585	6.158898
330	5	6	0.073213	4.575089	11.987000	5.832128
331	5	6	0.073213	5.530936	12.857186	4.589716
332	5	6	0.088963	6.180882	11.058362	6.855698
333	5	6	0.088963	7.114015	12.048103	7.974921
334	5	1	0.594913	10.664617	6.549767	7.449017
335	5	2	-0.196287	11.884992	7.030281	7.901593
336	5	2	-0.196287	10.848516	5.258138	6.969431
337	5	1	0.419613	9.712388	6.493124	8.660820
338	5	2	-0.175787	9.705483	7.729826	9.288928
339	5	2	-0.175787	10.208288	5.562086	9.554552
340	5	1	0.594913	8.260487	6.113574	8.306302
341	5	2	-0.196287	7.584899	5.874790	9.496073
342	5	2	-0.196287	7.666383	7.179231	7.650776
343	5	3	-0.486587	8.243648	4.971981	7.467828
344	5	1	0.590413	6.967882	4.357889	7.377688
345	5	2	-0.194287	5.913906	5.246772	7.558626
346	5	2	-0.194287	6.880721	3.382294	8.356862
347	5	1	0.404113	6.828708	3.692188	5.996712
348	5	2	-0.174037	5.730903	2.850604	6.013232
349	5	2	-0.174037	7.952606	2.925777	5.748944
350	5	1	0.594913	6.653405	4.714451	4.857951
351	5	2	-0.188537	6.713456	4.040083	3.650571
352	5	2	-0.188537	7.694427	5.631676	4.898758
353	5	3	-0.495087	5.380150	5.328801	4.987432
354	5	4	-0.604787	5.189475	8.128405	9.779341
355	5	1	0.114413	5.080575	9.158145	8.843544
356	5	1	0.110613	3.617422	9.339200	8.433127
357	5	4	-0.611287	3.493471	10.514018	7.673465
358	5	1	0.089413	3.099006	8.128988	7.635850
359	5	3	-0.416587	3.724389	8.079655	6.369352
360	5	1	0.093913	3.126392	7.065336	5.588514
361	5	1	0.403113	3.800247	6.979776	4.208318
362	5	2	-0.199037	3.110980	6.058681	3.432835
363	5	2	-0.199037	3.713614	8.214462	3.584855
364	5	1	0.569413	5.279154	6.556881	4.288100
365	5	2	-0.204287	5.760715	6.436732	2.991061
366	5	2	-0.204287	5.998570	7.538906	4.949268
367	5	5	0.416013	6.139638	8.123333	10.066471
368	5	6	0.046463	5.693692	8.918252	7.954153
369	5	6	0.046463	5.455762	10.106358	9.293328
370	5	6	0.069213	3.007890	9.443699	9.361658
371	5	5	0.426513	2.526179	10.743952	7.660784
372	5	6	0.073213	3.287134	7.192928	8.215650
373	5	6	0.073213	1.996607	8.246527	7.532598
374	5	6	0.088963	2.049049	7.299107	5.416871
375	5	6	0.088963	3.207629	6.081861	6.098788
376	6	1	0.594913	30.191897	24.189910	6.821426
377	6	2	-0.188537	30.280451	25.561503	6.991779
378	6	2	-0.188537	31.491935	23.708681	6.867185
379	6	1	0.404113	29.636640	23.892372	5.398062
380	6	2	-0.174037	28.543009	24.688543	5.119736
381	6	2	-0.174037	30.618922	24.245787	4.487223
382	6	1	0.590413	29.272877	22.417257	5.145834
383	6	2	-0.194287	30.394655	21.629466	5.387293
384	6	2	-0.194287	28.922221	22.296440	3.801530
385	6	3	-0.486587	28.184205	22.037827	5.977416
386	6	4	-0.604787	26.692506	30.769417	10.152161
387	6	1	0.114413	25.854011	30.086206	11.044841
388	6	1	0.110613	26.578778	28.864773	11.617646
389	6	4	-0.611287	27.753260	29.281531	12.265437
390	6	1	0.089413	26.914466	27.853767	10.516023
391	6	3	-0.416587	27.529483	26.721922	11.093311
392	6	1	0.093913	27.365849	25.566695	10.288378
393	6	1	0.403113	28.608842	25.298238	9.422513
394	6	2	-0.199037	29.658581	24.896030	10.241364
395	6	2	-0.199037	28.961692	26.490162	8.802928
396	6	1	0.569413	28.312340	24.196586	8.362731
397	6	2	-0.204287	27.544085	23.206760	8.960424
398	6	2	-0.204287	27.546311	24.729048	7.341109
399	6	3	-0.495087	29.487284	23.546262	7.882585
400	6	5	0.416013	26.168364	31.552321	9.831836
401	6	6	0.046463	24.929713	29.762103	10.518478
402	6	6	0.046463	25.566654	30.766990	11.878044
403	6	6	0.069213	25.891297	28.382910	12.354176
404	6	5	0.426513	27.984111	28.590826	12.936299
405	6	6	0.073213	25.966222	27.620987	9.993718
406	6	6	0.073213	27.603940	28.320476	9.786229
407	6	6	0.088963	26.458267	25.588736	9.652428
408	6	6	0.088963	27.224292	24.704297	10.969227
409	6	1	0.594913	27.848048	20.665285	5.829931
410	6	2	-0.196287	28.875416	19.861874	6.303301
411	6	2	-0.196287	27.605403	20.335652	4.501551
412	6	1	0.419613	26.587480	20.337577	6.655758
413	6	2	-0.175787	26.891786	20.438837	8.005254
414	6	2	-0.175787	26.230642	19.027599	6.394739
415	6	1	0.594913	25.380201	21.248254	6.354258
416	6	2	-0.196287	24.270679	20.699318	6.984037
417	6	2	-0.196287	25.626150	22.506242	6.878922
418	6	3	-0.486587	25.179822	21.348593	4.955566
419	6	1	0.590413	23.909007	21.872686	4.604614
420	6	2	-0.194287	23.383156	22.732286	5.562886
421	6	2	-0.194287	23.027950	20.816119	4.444708
422	6	1	0.404113	24.029976	22.627668	3.268578
423	6	2	-0.174037	22.760788	22.877295	2.778109
424	6	2	-0.174037	24.692600	21.827927	2.355745
425	6	1	0.594913	24.780813	23.965475	3.406577
426	6	2	-0.188537	24.992409	24.481950	2.139838
427	6	2	-0.188537	26.015772	23.740968	3.999172
428	6	3	-0.495087	23.975051	24.867051	4.150405
429	6	4	-0.604787	23.228667	22.843428	9.267473
430	6	1	0.114413	23.958626	24.004933	9.524388
431	6	1	0.110613	23.013481	25.203933	9.629932
432	6	4	-0.611287	23.728292	26.313913	10.109138
433	6	1	0.089413	22.361051	25.531697	8.274969
434	6	3	-0.416587	23.331053	26.037986	7.380361
435	6	1	0.093913	22.695228	26.484510	6.200321
436	6	1	0.403113	23.731939	27.026846	5.201599
437	6	2	-0.199037	23.061777	27.562048	4.111039
438	6	2	-0.199037	24.451321	28.046410	5.804625
439	6	1	0.569413	24.708999	25.944905	4.704479
440	6	2	-0.204287	25.542852	26.523816	3.756746
441	6	2	-0.204287	25.474575	25.498719	5.769320
442	6	5	0.416013	23.884653	22.099161	9.299529
443	6	6	0.046463	24.689039	24.172391	8.710181
444	6	6	0.046463	24.511879	23.887888	10.484799
445	6	6	0.069213	22.210618	24.948447	10.361202
446	6	5	0.426513	23.053283	26.973772	10.421599
447	6	6	0.073213	21.873570	24.614142	7.864821
448	6	6	0.073213	21.561461	26.283105	8.464189
449	6	6	0.088963	21.993945	27.319737	6.435641
450	6	6	0.088963	22.126860	25.655879	5.726475
451	7	1	0.594913	4.860290	17.401456	9.969914
452	7	2	-0.188537	4.714313	16.396601	9.028060
453	7	2	-0.188537	4.623266	16.813927	11.203771
454	7	1	0.404113	3.751641	18.470451	9.744188
455	7	2	-0.174037	3.647071	18.796526	8.406233
456	7	2	-0.174037	2.542594	17.896278	10.101875
457	7	1	0.590413	3.922161	19.757570	10.572532
458	7	2	-0.194287	3.982375	19.419954	11.921491
459	7	2	-0.194287	2.791943	20.545963	10.358630
460	7	3	-0.486587	5.093336	20.448560	10.158304
461	7	4	-0.604787	7.650496	14.359650	2.927783
462	7	1	0.114413	8.867978	15.055435	2.909078
463	7	1	0.110613	9.441719	15.150430	4.325795
464	7	4	-0.611287	9.621027	13.857095	4.843347
465	7	1	0.089413	8.520286	15.962228	5.242494
466	7	3	-0.416587	9.111862	16.072299	6.519405
467	7	1	0.093913	8.642318	17.211572	7.219996
468	7	1	0.403113	7.526261	16.845938	8.213752
469	7	2	-0.199037	8.068631	16.105455	9.258625
470	7	2	-0.199037	6.601582	16.055398	7.543612
471	7	1	0.569413	6.846165	18.130369	8.772675
472	7	2	-0.204287	7.829936	19.080020	9.012609
473	7	2	-0.204287	6.005225	18.665637	7.813334
474	7	3	-0.495087	6.188302	17.921668	10.020719
475	7	5	0.416013	7.343841	14.322722	1.981807
476	7	6	0.046463	8.710591	16.076588	2.498099
477	7	6	0.046463	9.591715	14.518256	2.254928
478	7	6	0.069213	10.428298	15.668762	4.253027
479	7	5	0.426513	10.321850	13.910275	5.540800
480	7	6	0.073213	8.355044	16.939281	4.748311
481	7	6	0.073213	7.542514	15.449953	5.328098
482	7	6	0.088963	8.307086	18.036592	6.560006
483	7	6	0.088963	9.495708	17.624644	7.793077
484	7	1	0.594913	5.332853	21.613955	10.934906
485	7	2	-0.196287	5.640499	21.268937	12.243092
486	7	2	-0.196287	4.228680	22.458198	10.948439
487	7	1	0.419613	6.538071	22.390209	10.366317
488	7	2	-0.175787	7.690600	21.644051	10.563600
489	7	2	-0.175787	6.664709	23.569181	11.077298
490	7	1	0.594913	6.421536	22.727652	8.866214
491	7	2	-0.196287	7.444652	23.613085	8.552791
492	7	2	-0.196287	6.584199	21.564765	8.131685
493	7	3	-0.486587	5.151728	23.290539	8.588182
494	7	1	0.590413	5.086204	23.937875	7.327439
495	7	2	-0.194287	5.959748	23.403153	6.386847
496	7	2	-0.194287	5.408100	25.273429	7.503067
497	7	1	0.404113	3.648168	23.838393	6.787273
498	7	2	-0.174037	3.507671	24.710746	5.722860
499	7	2	-0.174037	2.765154	24.225740	7.778317
500	7	1	0.594913	3.286332	22.417433	6.315598
501	7	2	-0.188537	1.935341	22.385987	6.015631
502	7	2	-0.188537	3.527135	21.516194	7.343449
503	7	3	-0.495087	4.032201	22.120900	5.144650
504	7	4	-0.604787	9.445334	22.133957	6.383337
505	7	1	0.114413	9.236664	20.799101	6.033260
506	7	1	0.110613	9.365720	20.629614	4.517787
507	7	4	-0.611287	9.379767	19.260132	4.206384
508	7	1	0.089413	8.221841	21.337063	3.769405
509	7	3	-0.416587	7.000386	20.666888	4.007035
510	7	1	0.093913	5.991010	21.224962	3.191028
511	7	1	0.403113	4.645487	20.522876	3.441997
512	7	2	-0.199037	3.711674	21.015576	2.541931
513	7	2	-0.199037	4.792386	19.165099	3.206361
514	7	1	0.569413	4.117224	20.732844	4.873508
515	7	2	-0.204287	2.870878	20.126851	4.963172
516	7	2	-0.204287	4.981121	20.127028	5.771141
517	7	5	0.416013	9.436299	22.157856	7.375620
518	7	6	0.046463	8.229058	20.481793	6.362688
519	7	6	0.046463	9.997573	20.161682	6.540105
520	7	6	0.069213	10.334788	21.082018	4.200205
521	7	5	0.426513	9.733613	19.182486	3.280400
522	7	6	0.073213	8.167068	22.403910	4.095913
523	7	6	0.073213	8.478026	21.328189	2.685869
524	7	6	0.088963	6.244640	21.079116	2.114377
525	7	6	0.088963	5.882078	22.311701	3.394334
526	8	1	0.594913	22.182845	19.605766	11.469575
527	8	2	-0.188537	22.481137	18.267885	11.667630
528	8	2	-0.188537	22.827767	20.300887	12.481829
529	8	1	0.404113	20.652890	19.816409	11.663674
530	8	2	-0.174037	19.933286	18.848052	10.991486
531	8	2	-0.174037	20.377718	19.643059	13.010387
532	8	1	0.590413	20.139554	21.210134	11.256341
533	8	2	-0.194287	20.841816	22.175336	11.972243
534	8	2	-0.194287	18.793004	21.280808	11.612036
535	8	3	-0.486587	20.291476	21.391674	9.854676
536	8	4	-0.604787	23.849163	12.498755	7.816737
537	8	1	0.114413	24.153983	13.021707	6.551693
538	8	1	0.110613	24.912923	14.343827	6.697640
539	8	4	-0.611287	26.086993	14.127657	7.437609
540	8	1	0.089413	24.046382	15.406462	7.381969
541	8	3	-0.416587	24.761923	16.621584	7.445702
542	8	1	0.093913	23.894051	17.738827	7.534076
543	8	1	0.403113	23.738203	18.222255	8.986258
544	8	2	-0.199037	24.934762	18.790389	9.410178
545	8	2	-0.199037	23.469342	17.113058	9.777758
546	8	1	0.569413	22.588194	19.266233	9.097065
547	8	2	-0.204287	22.648459	20.105753	7.993079
548	8	2	-0.204287	21.366560	18.619756	9.036197
549	8	3	-0.495087	22.702803	20.111106	10.240310
550	8	5	0.416013	23.373776	11.640775	7.648962
551	8	6	0.046463	23.215974	13.188146	5.978227
552	8	6	0.046463	24.786291	12.294949	5.992874
553	8	6	0.069213	25.172956	14.695400	5.669982
554	8	5	0.426513	26.727994	14.841906	7.193911
555	8	6	0.073213	23.107171	15.478805	6.799900
556	8	6	0.073213	23.791983	15.070105	8.405656
557	8	6	0.088963	22.896452	17.567957	7.082164
558	8	6	0.088963	24.346144	18.558774	6.941941
559	8	1	0.594913	19.890468	22.688145	9.433987
560	8	2	-0.196287	20.745584	23.650713	9.950971
561	8	2	-0.196287	18.594819	22.982833	9.842131
562	8	1	0.419613	19.956443	22.789505	7.896525
563	8	2	-0.175787	21.283042	22.730168	7.495761
564	8	2	-0.175787	19.451807	24.021763	7.524519
565	8	1	0.594913	19.169515	21.689165	7.156421
566	8	2	-0.196287	19.123205	22.035880	5.812310
567	8	2	-0.196287	19.843489	20.487038	7.294067
568	8	3	-0.486587	17.867453	21.567960	7.700941
569	8	1	0.590413	16.976129	20.838147	6.872855
570	8	2	-0.194287	17.612725	19.893536	6.075250
571	8	2	-0.194287	16.319576	21.730609	6.041822
572	8	1	0.404113	15.938297	20.126057	7.759114
573	8	2	-0.174037	14.905585	19.668146	6.960656
574	8	2	-0.174037	15.413341	21.034587	8.659622
575	8	1	0.594913	16.533441	18.934487	8.532737
576	8	2	-0.188537	15.581800	18.472259	9.425413
577	8	2	-0.188537	17.639595	19.360959	9.254707
578	8	3	-0.495087	16.849259	17.902668	7.610252
579	8	4	-0.604787	20.751954	19.726525	4.106104
580	8	1	0.114413	21.425957	18.704122	4.775694
581	8	1	0.110613	21.143518	17.360877	4.098967
582	8	4	-0.611287	21.998441	16.384794	4.636570
583	8	1	0.089413	19.673521	16.938249	4.270757
584	8	3	-0.416587	19.418256	16.612035	5.622046
585	8	1	0.093913	18.117163	16.073739	5.738430
586	8	1	0.403113	17.807570	15.724239	7.204154
587	8	2	-0.199037	16.573878	15.091963	7.259921
588	8	2	-0.199037	18.764885	14.836985	7.669975
589	8	1	0.569413	17.775949	16.960869	8.121824
590	8	2	-0.204287	17.413039	16.540365	9.394663
591	8	2	-0.204287	19.041506	17.521890	8.173745
592	8	5	0.416013	21.046006	20.571306	4.536402
593	8	6	0.046463	21.095377	18.670316	5.831180
594	8	6	0.046463	22.521804	18.905553	4.748792
595	8	6	0.069213	21.359608	17.469787	3.009901
596	8	5	0.426513	21.986633	15.617046	4.004821
597	8	6	0.073213	19.005809	17.762842	3.921510
598	8	6	0.073213	19.500566	16.060121	3.608383